           6
Step:      100
C      2.36000000     2.84000000     0.00000000
C      0.00000000     1.27000000     0.00000000
C      0.00000000    -1.27000000     0.00000000
C     -2.36000000    -2.84000000     0.00000000
O      1.07563586     0.11232044     1.98553137
O      3.63947541     3.25018021     4.78663142
           6
Step:      200
C      2.36000000     2.84000000     0.00000000
C      0.00000000     1.27000000     0.00000000
C      0.00000000    -1.27000000     0.00000000
C     -2.36000000    -2.84000000     0.00000000
O      2.12034758    -2.01867910     6.18500003
O      5.44232604     4.45128583     8.58821047
           6
Step:      300
C      2.36000000     2.84000000     0.00000000
C      0.00000000     1.27000000     0.00000000
C      0.00000000    -1.27000000     0.00000000
C     -2.36000000    -2.84000000     0.00000000
O      3.23273796    -3.42171179     9.98381622
O      3.66234797     2.36638416     7.33643597
           6
Step:      400
C      2.36000000     2.84000000     0.00000000
C      0.00000000     1.27000000     0.00000000
C      0.00000000    -1.27000000     0.00000000
C     -2.36000000    -2.84000000     0.00000000
O      2.46330904    -2.79514165     7.87757057
O      0.19379334    -1.02366846     3.67647808
           6
Step:      500
C      2.36000000     2.84000000     0.00000000
C      0.00000000     1.27000000     0.00000000
C      0.00000000    -1.27000000     0.00000000
C     -2.36000000    -2.84000000     0.00000000
O      1.37066378    -1.22693905     3.57718122
O     -3.77546654    -4.93113603     2.23422186
           6
Step:      600
C      2.36000000     2.84000000     0.00000000
C      0.00000000     1.27000000     0.00000000
C      0.00000000    -1.27000000     0.00000000
C     -2.36000000    -2.84000000     0.00000000
O      1.39367782    -0.72119889     2.34584791
O     -7.01963685    -7.99887644     1.82617383
           6
Step:      700
C      2.36000000     2.84000000     0.00000000
C      0.00000000     1.27000000     0.00000000
C      0.00000000    -1.27000000     0.00000000
C     -2.36000000    -2.84000000     0.00000000
O      1.34044349    -3.13404905     4.79643462
O     -4.62087764    -5.14541395     0.86698429
           6
Step:      800
C      2.36000000     2.84000000     0.00000000
C      0.00000000     1.27000000     0.00000000
C      0.00000000    -1.27000000     0.00000000
C     -2.36000000    -2.84000000     0.00000000
O      1.14148512    -5.87607655     7.72111455
O     -1.38746630    -1.30876707     0.96253863
           6
Step:      900
C      2.36000000     2.84000000     0.00000000
C      0.00000000     1.27000000     0.00000000
C      0.00000000    -1.27000000     0.00000000
C     -2.36000000    -2.84000000     0.00000000
O      0.36430801    -5.06538119     6.40132214
O      0.29612322     1.51785043     5.30786837
           6
Step:     1000
C      2.36000000     2.84000000     0.00000000
C      0.00000000     1.27000000     0.00000000
C      0.00000000    -1.27000000     0.00000000
C     -2.36000000    -2.84000000     0.00000000
O     -0.25166179    -2.08586118     3.45981603
O      1.48137427     3.62294136    10.70104485
           6
Step:     1100
C      2.36000000     2.84000000     0.00000000
C      0.00000000     1.27000000     0.00000000
C      0.00000000    -1.27000000     0.00000000
C     -2.36000000    -2.84000000     0.00000000
O     -0.30806089     1.22589989     4.69111037
O      1.35279878     2.49822973     8.51361596
           6
Step:     1200
C      2.36000000     2.84000000     0.00000000
C      0.00000000     1.27000000     0.00000000
C      0.00000000    -1.27000000     0.00000000
C     -2.36000000    -2.84000000     0.00000000
O     -1.45175253     4.84335632     7.67226761
O      1.38742956    -0.45902831     3.29760929
           6
Step:     1300
C      2.36000000     2.84000000     0.00000000
C      0.00000000     1.27000000     0.00000000
C      0.00000000    -1.27000000     0.00000000
C     -2.36000000    -2.84000000     0.00000000
O     -2.19582579     5.64804480     6.96395549
O      2.89482691    -3.98004818     1.33938011
           6
Step:     1400
C      2.36000000     2.84000000     0.00000000
C      0.00000000     1.27000000     0.00000000
C      0.00000000    -1.27000000     0.00000000
C     -2.36000000    -2.84000000     0.00000000
O     -0.88571012     1.25194647     2.09265012
O      4.51519076    -5.79054385     2.02811187
           6
Step:     1500
C      2.36000000     2.84000000     0.00000000
C      0.00000000     1.27000000     0.00000000
C      0.00000000    -1.27000000     0.00000000
C     -2.36000000    -2.84000000     0.00000000
O      0.30343558    -4.41135977    -0.23831649
O      4.71936438    -5.07792852     2.67701918
           6
Step:     1600
C      2.36000000     2.84000000     0.00000000
C      0.00000000     1.27000000     0.00000000
C      0.00000000    -1.27000000     0.00000000
C     -2.36000000    -2.84000000     0.00000000
O      2.02975139   -11.21866047    -1.97974690
O      4.57562519    -3.34558403     3.13333489
           6
Step:     1700
C      2.36000000     2.84000000     0.00000000
C      0.00000000     1.27000000     0.00000000
C      0.00000000    -1.27000000     0.00000000
C     -2.36000000    -2.84000000     0.00000000
O      3.14288090    -9.49984004    -1.64100502
O      4.20085597    -3.10725186     2.80258699
           6
Step:     1800
C      2.36000000     2.84000000     0.00000000
C      0.00000000     1.27000000     0.00000000
C      0.00000000    -1.27000000     0.00000000
C     -2.36000000    -2.84000000     0.00000000
O      3.31608000    -1.75975109    -0.27968295
O      4.46016348    -4.08679437     2.78698167
           6
Step:     1900
C      2.36000000     2.84000000     0.00000000
C      0.00000000     1.27000000     0.00000000
C      0.00000000    -1.27000000     0.00000000
C     -2.36000000    -2.84000000     0.00000000
O      5.70734664     5.09350085    -0.21630831
O      5.05342510    -4.85953721     3.75526658
           6
Step:     2000
C      2.36000000     2.84000000     0.00000000
C      0.00000000     1.27000000     0.00000000
C      0.00000000    -1.27000000     0.00000000
C     -2.36000000    -2.84000000     0.00000000
O      7.46442680     7.67523079     0.60153921
O      4.88903842    -2.06154540     3.06366276
           6
Step:     2100
C      2.36000000     2.84000000     0.00000000
C      0.00000000     1.27000000     0.00000000
C      0.00000000    -1.27000000     0.00000000
C     -2.36000000    -2.84000000     0.00000000
O      4.93010034     4.13001950     1.78842789
O      5.53746044     2.52609472     2.09514327
           6
Step:     2200
C      2.36000000     2.84000000     0.00000000
C      0.00000000     1.27000000     0.00000000
C      0.00000000    -1.27000000     0.00000000
C     -2.36000000    -2.84000000     0.00000000
O      1.11652778     0.88691655     3.90820310
O      7.74140414     5.04458462     1.89579156
           6
Step:     2300
C      2.36000000     2.84000000     0.00000000
C      0.00000000     1.27000000     0.00000000
C      0.00000000    -1.27000000     0.00000000
C     -2.36000000    -2.84000000     0.00000000
O     -1.46693925    -1.56149973     8.11681151
O      6.51498230     4.52131033     1.64737262
           6
Step:     2400
C      2.36000000     2.84000000     0.00000000
C      0.00000000     1.27000000     0.00000000
C      0.00000000    -1.27000000     0.00000000
C     -2.36000000    -2.84000000     0.00000000
O     -1.20944950    -1.63175542     8.33722548
O      1.81084822     0.76071790     3.48537322
           6
Step:     2500
C      2.36000000     2.84000000     0.00000000
C      0.00000000     1.27000000     0.00000000
C      0.00000000    -1.27000000     0.00000000
C     -2.36000000    -2.84000000     0.00000000
O     -0.14363970    -0.41536233     6.05447266
O     -2.08439164    -3.59780170     7.43340743
           6
Step:     2600
C      2.36000000     2.84000000     0.00000000
C      0.00000000     1.27000000     0.00000000
C      0.00000000    -1.27000000     0.00000000
C     -2.36000000    -2.84000000     0.00000000
O      1.17193724     1.73694800     5.00486391
O     -4.76846348    -6.77443703     8.42609616
           6
Step:     2700
C      2.36000000     2.84000000     0.00000000
C      0.00000000     1.27000000     0.00000000
C      0.00000000    -1.27000000     0.00000000
C     -2.36000000    -2.84000000     0.00000000
O      1.11689134     1.94366018     6.33522531
O     -3.00096370    -3.60994122     3.63560986
           6
Step:     2800
C      2.36000000     2.84000000     0.00000000
C      0.00000000     1.27000000     0.00000000
C      0.00000000    -1.27000000     0.00000000
C     -2.36000000    -2.84000000     0.00000000
O      0.26317884     1.02646069     7.60696444
O     -0.78441882     1.21341647    -0.23026620
           6
Step:     2900
C      2.36000000     2.84000000     0.00000000
C      0.00000000     1.27000000     0.00000000
C      0.00000000    -1.27000000     0.00000000
C     -2.36000000    -2.84000000     0.00000000
O     -0.84241705     0.04713875     6.35050454
O     -1.33148162     7.42779963    -2.91344068
           6
Step:     3000
C      2.36000000     2.84000000     0.00000000
C      0.00000000     1.27000000     0.00000000
C      0.00000000    -1.27000000     0.00000000
C     -2.36000000    -2.84000000     0.00000000
O     -2.27368727     1.37373216     2.86532991
O     -2.15082373     9.48021313    -2.57654416
           6
Step:     3100
C      2.36000000     2.84000000     0.00000000
C      0.00000000     1.27000000     0.00000000
C      0.00000000    -1.27000000     0.00000000
C     -2.36000000    -2.84000000     0.00000000
O     -5.48142883     5.23388382     0.34415265
O     -2.22689186     5.34213836     0.15767401
           6
Step:     3200
C      2.36000000     2.84000000     0.00000000
C      0.00000000     1.27000000     0.00000000
C      0.00000000    -1.27000000     0.00000000
C     -2.36000000    -2.84000000     0.00000000
O     -8.54360455     7.34955513    -1.56650292
O     -2.45076396     1.91194062     3.19488886
           6
Step:     3300
C      2.36000000     2.84000000     0.00000000
C      0.00000000     1.27000000     0.00000000
C      0.00000000    -1.27000000     0.00000000
C     -2.36000000    -2.84000000     0.00000000
O     -5.54498550     4.01409871    -1.60622787
O     -4.95816847     0.62263670     6.78977387
           6
Step:     3400
C      2.36000000     2.84000000     0.00000000
C      0.00000000     1.27000000     0.00000000
C      0.00000000    -1.27000000     0.00000000
C     -2.36000000    -2.84000000     0.00000000
O     -1.76447748    -0.77777834     0.08022383
O     -5.93904373     0.15524063     6.80130170
           6
Step:     3500
C      2.36000000     2.84000000     0.00000000
C      0.00000000     1.27000000     0.00000000
C      0.00000000    -1.27000000     0.00000000
C     -2.36000000    -2.84000000     0.00000000
O     -0.79925175    -5.42075516     3.30281694
O     -4.21564845    -0.00775770     3.54819214
           6
Step:     3600
C      2.36000000     2.84000000     0.00000000
C      0.00000000     1.27000000     0.00000000
C      0.00000000    -1.27000000     0.00000000
C     -2.36000000    -2.84000000     0.00000000
O      0.39223235    -9.11016890     6.79363494
O     -3.27449055     0.21433887     1.56301586
           6
Step:     3700
C      2.36000000     2.84000000     0.00000000
C      0.00000000     1.27000000     0.00000000
C      0.00000000    -1.27000000     0.00000000
C     -2.36000000    -2.84000000     0.00000000
O      0.69108318    -5.00565487     5.22213621
O     -4.35180098    -0.54450338     2.90005791
           6
Step:     3800
C      2.36000000     2.84000000     0.00000000
C      0.00000000     1.27000000     0.00000000
C      0.00000000    -1.27000000     0.00000000
C     -2.36000000    -2.84000000     0.00000000
O      1.02500309     1.42726201     2.91458273
O     -6.38690343    -1.04064994     5.87999057
           6
Step:     3900
C      2.36000000     2.84000000     0.00000000
C      0.00000000     1.27000000     0.00000000
C      0.00000000    -1.27000000     0.00000000
C     -2.36000000    -2.84000000     0.00000000
O      0.77390149     7.51674116     4.30985708
O     -5.19742901    -0.17868678     6.60215232
           6
Step:     4000
C      2.36000000     2.84000000     0.00000000
C      0.00000000     1.27000000     0.00000000
C      0.00000000    -1.27000000     0.00000000
C     -2.36000000    -2.84000000     0.00000000
O     -1.30004465     9.17701047     5.30372688
O     -0.82236285     2.71313713     4.94768187
           6
Step:     4100
C      2.36000000     2.84000000     0.00000000
C      0.00000000     1.27000000     0.00000000
C      0.00000000    -1.27000000     0.00000000
C     -2.36000000    -2.84000000     0.00000000
O     -3.40461172     5.30220988     3.48914971
O      3.66451214     5.83686869     4.06938988
           6
Step:     4200
C      2.36000000     2.84000000     0.00000000
C      0.00000000     1.27000000     0.00000000
C      0.00000000    -1.27000000     0.00000000
C     -2.36000000    -2.84000000     0.00000000
O     -4.88537758     0.67133301     1.23364672
O      6.02491965     6.65521359     2.78814492
           6
Step:     4300
C      2.36000000     2.84000000     0.00000000
C      0.00000000     1.27000000     0.00000000
C      0.00000000    -1.27000000     0.00000000
C     -2.36000000    -2.84000000     0.00000000
O     -4.98422873    -1.16605563     0.00581025
O      3.04937405     3.20568100     0.37573479
           6
Step:     4400
C      2.36000000     2.84000000     0.00000000
C      0.00000000     1.27000000     0.00000000
C      0.00000000    -1.27000000     0.00000000
C     -2.36000000    -2.84000000     0.00000000
O     -5.90865897    -1.02422991    -1.07075960
O      0.38831350    -0.87804096    -2.29917118
           6
Step:     4500
C      2.36000000     2.84000000     0.00000000
C      0.00000000     1.27000000     0.00000000
C      0.00000000    -1.27000000     0.00000000
C     -2.36000000    -2.84000000     0.00000000
O     -7.54536526    -0.02413532    -2.50358282
O     -1.13735246    -5.35277272    -7.89530007
           6
Step:     4600
C      2.36000000     2.84000000     0.00000000
C      0.00000000     1.27000000     0.00000000
C      0.00000000    -1.27000000     0.00000000
C     -2.36000000    -2.84000000     0.00000000
O     -6.18171485     0.41440422    -4.58349257
O     -2.92255528    -5.90085719    -9.05618296
           6
Step:     4700
C      2.36000000     2.84000000     0.00000000
C      0.00000000     1.27000000     0.00000000
C      0.00000000    -1.27000000     0.00000000
C     -2.36000000    -2.84000000     0.00000000
O     -2.67717866     0.65426744    -6.53115191
O     -3.37444134    -2.02236594    -4.20287225
           6
Step:     4800
C      2.36000000     2.84000000     0.00000000
C      0.00000000     1.27000000     0.00000000
C      0.00000000    -1.27000000     0.00000000
C     -2.36000000    -2.84000000     0.00000000
O      1.34163364     2.01968741    -7.95489130
O     -4.51968547     1.82302623     0.61023321
           6
Step:     4900
C      2.36000000     2.84000000     0.00000000
C      0.00000000     1.27000000     0.00000000
C      0.00000000    -1.27000000     0.00000000
C     -2.36000000    -2.84000000     0.00000000
O      3.25912541     2.73889447    -5.24301134
O     -5.67532875     6.18505407     2.98223811
           6
Step:     5000
C      2.36000000     2.84000000     0.00000000
C      0.00000000     1.27000000     0.00000000
C      0.00000000    -1.27000000     0.00000000
C     -2.36000000    -2.84000000     0.00000000
O      2.31051691     4.11850465    -0.31306114
O     -2.44026216     7.24035211     1.81463579
